48
Properties=species:S:1:pos:R:3:forces:R:3 Frame=T 15,=T Energy=-76350.128352 eV=T charge=0 spin=3 energy=-76350.11023203314 free_energy=-76350.11023203314 stress="0.12236149609088898 -0.07051092386245728 0.3147990107536316 -0.07051092386245728 -0.17752741277217865 0.23549485206604004 0.3147990107536316 0.23549485206604004 0.5237748622894287" pbc="F F F"
S        0.22466850      -0.83819641       2.17961568       0.00624841       0.00072218       0.00772050
O       -0.13509515       1.26048526      -1.40289785       0.00829362       0.01724067       0.02134367
Fe       0.02608746       0.25499642       0.14788647       0.00082407      -0.00351150       0.00751838
N       -0.14212042      -1.46692570      -0.82122558      -0.00211532      -0.00147497       0.00278994
N       -1.94300871       0.30594210       0.43217447      -0.00015636      -0.00648959       0.00105232
N        0.20971100       1.96003493       1.17612916      -0.00248863      -0.00851317      -0.00408294
N        2.00780363       0.17948209      -0.07074022      -0.00144274      -0.00513607       0.00200324
C        0.83789903      -2.12712684      -1.49344011      -0.01401716      -0.00629014       0.00175817
C        0.31388122      -3.32312581      -2.09442514       0.02715759      -0.00753111      -0.00807443
C       -0.99450598      -3.38344192      -1.75436143      -0.03432114      -0.02057636       0.00335928
C       -1.26814643      -2.21006808      -0.97156597       0.00474279      -0.00160519       0.00316606
C       -2.83815266      -0.66343186       0.10238396      -0.00375987      -0.01274925       0.00024874
C       -4.17248858      -0.25548636       0.46108208       0.00439163       0.00010573       0.00225802
C       -4.06419506       0.97550446       1.00559769      -0.00378205      -0.00850670      -0.00517089
C       -2.66343727       1.30813356       0.99165588       0.00108240       0.00555710       0.00071983
C       -0.79183341       2.73757788       1.65897881       0.00675603       0.00603993      -0.00126944
C       -0.25521575       3.85626586       2.39728596       0.00552032      -0.00613535      -0.01596965
C        1.08559438       3.72095285       2.37382206      -0.00819512       0.00605931      -0.01033343
C        1.36468040       2.53566503       1.59944198      -0.00650543       0.00784637      -0.00294622
C        2.92312591       1.00224919       0.49608296      -0.00644761       0.01596852       0.00700668
C        4.25359195       0.63251104       0.09262345       0.01125781       0.01477552      -0.00362340
C        4.12249800      -0.41653450      -0.74873390      -0.00762335      -0.00839395      -0.01814554
C        2.71380944      -0.69750803      -0.83438581      -0.00115559      -0.00886718      -0.00726890
C        2.16925360      -1.75561533      -1.53123434       0.00503953       0.00346494       0.00134115
H        2.84455920      -2.37822917      -2.10323600      -0.00510009      -0.00067466      -0.00470374
C       -2.52769105      -1.85104921      -0.52200217      -0.00451782      -0.00333963       0.00542091
H       -3.33950391      -2.53852166      -0.71938518      -0.00276070      -0.00692102       0.00254071
C       -2.13693709       2.46116980       1.54608866      -0.01125593      -0.01253194      -0.01221618
H       -2.83180740       3.16968348       1.97652977      -0.00174255      -0.00197453      -0.00778518
C        2.63239423       2.08669661       1.30511508       0.00177761      -0.01774329      -0.02258188
H        3.46716932       2.64621303       1.70536075       0.00118246       0.00660392      -0.00643740
C       -1.44116687       0.20180802      -3.24076931       0.00971041       0.02214074       0.03925502
H       -0.67374278       0.70704548      -2.26715478       0.00476176       0.02055589       0.03152528
H       -1.38700402       0.97328638      -4.00068591       0.01934279       0.01003956       0.02114364
H       -0.99386412      -0.74357193      -3.52995930       0.02955210       0.01773032       0.02799634
H       -2.41383836       0.10930920      -2.77029926       0.02055543       0.00660852      -0.01412807
C        1.22131340      -2.30956275       1.86972318      -0.00328964      -0.00365313      -0.00145800
H        0.89302338      -4.02190295      -2.67726534      -0.01104932       0.00672725      -0.00540207
H       -1.72379266      -4.13587074      -2.01007268       0.00668276       0.00568520      -0.00422619
H       -5.05939387      -0.84822906       0.30480176      -0.00575160      -0.00736388       0.00032859
H       -4.84219480       1.61136737       1.39692155      -0.00254780      -0.00289829      -0.00397516
H       -0.84902456       4.61574083       2.88023001      -0.00680921       0.00505857      -0.00858365
H        1.83589439       4.35106878       2.82461621      -0.00138480       0.00095317      -0.01097339
H        5.15435569       1.13154378       0.41339527      -0.00664486      -0.00498436      -0.00708422
H        4.89315928      -0.96825693      -1.26309875      -0.00303838      -0.00443212      -0.00251853
H        1.34820183      -2.81868150       2.82523762      -0.00246072      -0.00114868      -0.00146754
H        0.73585000      -2.99384839       1.17433321      -0.00943198      -0.00470992       0.00190545
H        2.20963567      -2.04954839       1.48982537      -0.00508409      -0.00172664      -0.00197611
